# vtk DataFile Version 1.0
Temperatures at mid-athmosphere
ASCII
DATASET RECTILINEAR_GRID
DIMENSIONS 90 60 5
X_COORDINATES 90 float
-45 -44 -43 -42 -41 -40 -39 -38 -37 -36 -35 -34 -33 -32 -31
-30 -29 -28 -27 -26 -25 -24 -23 -22 -21 -20 -19 -18 -17 -16
-15 -14 -13 -12 -11 -10  -9  -8  -7  -6  -5  -4  -3  -2  -1
  0   1   2   3   4   5   6   7   8   9  10  11  12  13  14
 15  16  17  18  19  20  21  22  23  24  25  26  27  28  29
 30  31  32  33  34  35  36  37  38  39  40  41  42  43  44
Y_COORDINATES 60 float
20 21 22 23 24 25 26 27 28 29 30 31 32 33 34 35 36 37 38 39 40 41 42 43 44 45 46 47 48 49
50 51 52 53 54 55 56 57 58 59 60 61 62 63 64 65 66 67 68 69 70 71 72 73 74 75 76 77 78 79
Z_COORDINATES 5 float
1 21 41 61 81

POINT_DATA 27000
SCALARS Temperature float
LOOKUP_TABLE default
  0.26560E+03  0.26583E+03  0.26603E+03  0.26616E+03
  0.26614E+03  0.26595E+03  0.26583E+03  0.26576E+03
  0.26573E+03  0.26570E+03  0.26562E+03  0.26549E+03
  0.26545E+03  0.26547E+03  0.26545E+03  0.26527E+03
  0.26494E+03  0.26469E+03  0.26447E+03  0.26418E+03
  0.26395E+03  0.26379E+03  0.26360E+03  0.26339E+03
  0.26311E+03  0.26293E+03  0.26283E+03  0.26275E+03
  0.26241E+03  0.26181E+03  0.26136E+03  0.26075E+03
  0.26029E+03  0.25957E+03  0.25841E+03  0.25726E+03
  0.25662E+03  0.25695E+03  0.25798E+03  0.25882E+03
  0.25905E+03  0.25974E+03  0.26060E+03  0.26020E+03
  0.26015E+03  0.26063E+03  0.26093E+03  0.26115E+03
  0.26144E+03  0.26180E+03  0.26218E+03  0.26246E+03
  0.26263E+03  0.26283E+03  0.26304E+03  0.26334E+03
  0.26370E+03  0.26394E+03  0.26417E+03  0.26452E+03
  0.26485E+03  0.26512E+03  0.26522E+03  0.26554E+03
  0.26619E+03  0.26650E+03  0.26682E+03  0.26707E+03
  0.26734E+03  0.26758E+03  0.26768E+03  0.26780E+03
  0.26780E+03  0.26765E+03  0.26733E+03  0.26684E+03
  0.26585E+03  0.26478E+03  0.26382E+03  0.26347E+03
  0.26313E+03  0.26305E+03  0.26314E+03  0.26339E+03
  0.26337E+03  0.26357E+03  0.26390E+03  0.26411E+03
  0.26469E+03  0.26525E+03  0.26511E+03  0.26540E+03
  0.26572E+03  0.26574E+03  0.26557E+03  0.26546E+03
  0.26536E+03  0.26535E+03  0.26539E+03  0.26535E+03
  0.26526E+03  0.26518E+03  0.26509E+03  0.26502E+03
  0.26490E+03  0.26461E+03  0.26434E+03  0.26404E+03
  0.26383E+03  0.26371E+03  0.26365E+03  0.26359E+03
  0.26350E+03  0.26331E+03  0.26298E+03  0.26271E+03
  0.26256E+03  0.26244E+03  0.26205E+03  0.26150E+03
  0.26079E+03  0.26004E+03  0.25955E+03  0.25903E+03
  0.25808E+03  0.25671E+03  0.25569E+03  0.25559E+03
  0.25621E+03  0.25735E+03  0.25826E+03  0.25875E+03
  0.25959E+03  0.26014E+03  0.26016E+03  0.26013E+03
  0.26023E+03  0.26050E+03  0.26073E+03  0.26100E+03
  0.26134E+03  0.26163E+03  0.26183E+03  0.26212E+03
  0.26238E+03  0.26253E+03  0.26290E+03  0.26324E+03
  0.26343E+03  0.26367E+03  0.26398E+03  0.26434E+03
  0.26464E+03  0.26482E+03  0.26509E+03  0.26554E+03
  0.26569E+03  0.26579E+03  0.26592E+03  0.26611E+03
  0.26627E+03  0.26646E+03  0.26670E+03  0.26672E+03
  0.26666E+03  0.26639E+03  0.26551E+03  0.26421E+03
  0.26326E+03  0.26296E+03  0.26298E+03  0.26266E+03
  0.26221E+03  0.26287E+03  0.26308E+03  0.26299E+03
  0.26340E+03  0.26407E+03  0.26432E+03  0.26484E+03
  0.26474E+03  0.26496E+03  0.26503E+03  0.26487E+03
  0.26477E+03  0.26487E+03  0.26493E+03  0.26491E+03
  0.26483E+03  0.26478E+03  0.26473E+03  0.26466E+03
  0.26458E+03  0.26441E+03  0.26414E+03  0.26391E+03
  0.26368E+03  0.26339E+03  0.26333E+03  0.26336E+03
  0.26333E+03  0.26332E+03  0.26331E+03  0.26310E+03
  0.26281E+03  0.26254E+03  0.26237E+03  0.26228E+03
  0.26190E+03  0.26131E+03  0.26047E+03  0.25966E+03
  0.25916E+03  0.25885E+03  0.25822E+03  0.25676E+03
  0.25560E+03  0.25504E+03  0.25538E+03  0.25614E+03
  0.25696E+03  0.25740E+03  0.25812E+03  0.25883E+03
  0.25906E+03  0.25922E+03  0.25946E+03  0.25969E+03
  0.25998E+03  0.26030E+03  0.26059E+03  0.26096E+03
  0.26117E+03  0.26141E+03  0.26158E+03  0.26173E+03
  0.26194E+03  0.26232E+03  0.26264E+03  0.26293E+03
  0.26322E+03  0.26350E+03  0.26374E+03  0.26388E+03
  0.26399E+03  0.26428E+03  0.26441E+03  0.26424E+03
  0.26416E+03  0.26426E+03  0.26441E+03  0.26455E+03
  0.26489E+03  0.26512E+03  0.26524E+03  0.26526E+03
  0.26489E+03  0.26386E+03  0.26268E+03  0.26208E+03
  0.26254E+03  0.26249E+03  0.26196E+03  0.26205E+03
  0.26261E+03  0.26279E+03  0.26302E+03  0.26347E+03
  0.26390E+03  0.26456E+03  0.26428E+03  0.26438E+03
  0.26418E+03  0.26415E+03  0.26421E+03  0.26427E+03
  0.26442E+03  0.26460E+03  0.26447E+03  0.26426E+03
  0.26420E+03  0.26421E+03  0.26409E+03  0.26373E+03
  0.26348E+03  0.26328E+03  0.26303E+03  0.26287E+03
  0.26296E+03  0.26301E+03  0.26297E+03  0.26295E+03
  0.26295E+03  0.26278E+03  0.26258E+03  0.26241E+03
  0.26234E+03  0.26219E+03  0.26181E+03  0.26118E+03
  0.26028E+03  0.25949E+03  0.25893E+03  0.25853E+03
  0.25820E+03  0.25744E+03  0.25590E+03  0.25498E+03
  0.25479E+03  0.25521E+03  0.25575E+03  0.25633E+03
  0.25685E+03  0.25747E+03  0.25800E+03  0.25823E+03
  0.25841E+03  0.25882E+03  0.25927E+03  0.25959E+03
  0.25975E+03  0.25994E+03  0.26034E+03  0.26077E+03
  0.26098E+03  0.26125E+03  0.26143E+03  0.26167E+03
  0.26188E+03  0.26201E+03  0.26225E+03  0.26225E+03
  0.26228E+03  0.26239E+03  0.26241E+03  0.26239E+03
  0.26242E+03  0.26232E+03  0.26217E+03  0.26212E+03
  0.26234E+03  0.26239E+03  0.26255E+03  0.26282E+03
  0.26326E+03  0.26348E+03  0.26345E+03  0.26321E+03
  0.26228E+03  0.26137E+03  0.26157E+03  0.26174E+03
  0.26141E+03  0.26148E+03  0.26214E+03  0.26207E+03
  0.26267E+03  0.26300E+03  0.26334E+03  0.26382E+03
  0.26362E+03  0.26364E+03  0.26348E+03  0.26363E+03
  0.26370E+03  0.26376E+03  0.26397E+03  0.26417E+03
  0.26411E+03  0.26396E+03  0.26391E+03  0.26380E+03
  0.26349E+03  0.26315E+03  0.26297E+03  0.26276E+03
  0.26255E+03  0.26251E+03  0.26266E+03  0.26273E+03
  0.26267E+03  0.26257E+03  0.26247E+03  0.26240E+03
  0.26233E+03  0.26219E+03  0.26217E+03  0.26207E+03
  0.26176E+03  0.26115E+03  0.26031E+03  0.25949E+03
  0.25879E+03  0.25830E+03  0.25790E+03  0.25764E+03
  0.25679E+03  0.25552E+03  0.25488E+03  0.25479E+03
  0.25516E+03  0.25555E+03  0.25601E+03  0.25646E+03
  0.25692E+03  0.25731E+03  0.25769E+03  0.25821E+03
  0.25869E+03  0.25912E+03  0.25943E+03  0.25979E+03
  0.25995E+03  0.26031E+03  0.26078E+03  0.26107E+03
  0.26106E+03  0.26096E+03  0.26082E+03  0.26054E+03
  0.26052E+03  0.26056E+03  0.26051E+03  0.26048E+03
  0.26038E+03  0.26009E+03  0.25979E+03  0.25970E+03
  0.25987E+03  0.26003E+03  0.26034E+03  0.26064E+03
  0.26078E+03  0.26098E+03  0.26134E+03  0.26174E+03
  0.26194E+03  0.26203E+03  0.26176E+03  0.26099E+03
  0.26089E+03  0.26092E+03  0.26103E+03  0.26097E+03
  0.26137E+03  0.26151E+03  0.26185E+03  0.26247E+03
  0.26262E+03  0.26288E+03  0.26272E+03  0.26280E+03
  0.26273E+03  0.26303E+03  0.26313E+03  0.26324E+03
  0.26343E+03  0.26356E+03  0.26354E+03  0.26349E+03
  0.26345E+03  0.26331E+03  0.26293E+03  0.26264E+03
  0.26250E+03  0.26236E+03  0.26228E+03  0.26234E+03
  0.26243E+03  0.26245E+03  0.26238E+03  0.26215E+03
  0.26197E+03  0.26199E+03  0.26200E+03  0.26191E+03
  0.26198E+03  0.26199E+03  0.26179E+03  0.26132E+03
  0.26056E+03  0.25976E+03  0.25902E+03  0.25836E+03
  0.25783E+03  0.25738E+03  0.25712E+03  0.25638E+03
  0.25530E+03  0.25479E+03  0.25484E+03  0.25526E+03
  0.25565E+03  0.25596E+03  0.25619E+03  0.25642E+03
  0.25672E+03  0.25712E+03  0.25756E+03  0.25796E+03
  0.25822E+03  0.25858E+03  0.25877E+03  0.25888E+03
  0.25912E+03  0.25930E+03  0.25934E+03  0.25923E+03
  0.25903E+03  0.25882E+03  0.25872E+03  0.25878E+03
  0.25874E+03  0.25847E+03  0.25837E+03  0.25821E+03
  0.25791E+03  0.25787E+03  0.25828E+03  0.25873E+03
  0.25913E+03  0.25940E+03  0.25962E+03  0.25987E+03
  0.26007E+03  0.26034E+03  0.26067E+03  0.26098E+03
  0.26110E+03  0.26154E+03  0.26086E+03  0.26028E+03
  0.25989E+03  0.25992E+03  0.26068E+03  0.26146E+03
  0.26183E+03  0.26154E+03  0.26213E+03  0.26246E+03
  0.26181E+03  0.26191E+03  0.26195E+03  0.26227E+03
  0.26243E+03  0.26256E+03  0.26275E+03  0.26293E+03
  0.26293E+03  0.26291E+03  0.26291E+03  0.26280E+03
  0.26245E+03  0.26217E+03  0.26202E+03  0.26195E+03
  0.26195E+03  0.26190E+03  0.26196E+03  0.26207E+03
  0.26208E+03  0.26187E+03  0.26164E+03  0.26163E+03
  0.26162E+03  0.26159E+03  0.26171E+03  0.26179E+03
  0.26171E+03  0.26134E+03  0.26084E+03  0.26030E+03
  0.25972E+03  0.25891E+03  0.25823E+03  0.25753E+03
  0.25706E+03  0.25686E+03  0.25631E+03  0.25555E+03
  0.25512E+03  0.25516E+03  0.25531E+03  0.25549E+03
  0.25569E+03  0.25597E+03  0.25621E+03  0.25643E+03
  0.25677E+03  0.25695E+03  0.25706E+03  0.25718E+03
  0.25738E+03  0.25749E+03  0.25751E+03  0.25745E+03
  0.25730E+03  0.25709E+03  0.25701E+03  0.25708E+03
  0.25717E+03  0.25724E+03  0.25728E+03  0.25684E+03
  0.25664E+03  0.25662E+03  0.25670E+03  0.25700E+03
  0.25744E+03  0.25786E+03  0.25833E+03  0.25866E+03
  0.25892E+03  0.25916E+03  0.25937E+03  0.25962E+03
  0.26002E+03  0.26044E+03  0.26088E+03  0.26117E+03
  0.26116E+03  0.26040E+03  0.25963E+03  0.25952E+03
  0.26008E+03  0.26032E+03  0.26095E+03  0.26117E+03
  0.26142E+03  0.26215E+03  0.26122E+03  0.26108E+03
  0.26113E+03  0.26141E+03  0.26167E+03  0.26180E+03
  0.26200E+03  0.26223E+03  0.26233E+03  0.26233E+03
  0.26236E+03  0.26226E+03  0.26199E+03  0.26171E+03
  0.26152E+03  0.26140E+03  0.26138E+03  0.26134E+03
  0.26145E+03  0.26164E+03  0.26177E+03  0.26172E+03
  0.26150E+03  0.26135E+03  0.26125E+03  0.26124E+03
  0.26134E+03  0.26154E+03  0.26162E+03  0.26167E+03
  0.26144E+03  0.26110E+03  0.26059E+03  0.25991E+03
  0.25917E+03  0.25844E+03  0.25761E+03  0.25694E+03
  0.25665E+03  0.25625E+03  0.25575E+03  0.25530E+03
  0.25525E+03  0.25539E+03  0.25563E+03  0.25587E+03
  0.25611E+03  0.25640E+03  0.25663E+03  0.25667E+03
  0.25657E+03  0.25633E+03  0.25623E+03  0.25632E+03
  0.25621E+03  0.25601E+03  0.25589E+03  0.25589E+03
  0.25600E+03  0.25612E+03  0.25614E+03  0.25614E+03
  0.25613E+03  0.25601E+03  0.25581E+03  0.25582E+03
  0.25610E+03  0.25648E+03  0.25688E+03  0.25730E+03
  0.25761E+03  0.25793E+03  0.25814E+03  0.25849E+03
  0.25894E+03  0.25941E+03  0.25969E+03  0.25991E+03
  0.26026E+03  0.26047E+03  0.26104E+03  0.26112E+03
  0.26025E+03  0.26018E+03  0.25882E+03  0.25718E+03
  0.25995E+03  0.26075E+03  0.26088E+03  0.26148E+03
  0.26064E+03  0.26060E+03  0.26056E+03  0.26067E+03
  0.26089E+03  0.26104E+03  0.26123E+03  0.26148E+03
  0.26169E+03  0.26169E+03  0.26174E+03  0.26167E+03
  0.26148E+03  0.26120E+03  0.26093E+03  0.26074E+03
  0.26075E+03  0.26082E+03  0.26090E+03  0.26110E+03
  0.26132E+03  0.26147E+03  0.26140E+03  0.26118E+03
  0.26100E+03  0.26099E+03  0.26115E+03  0.26148E+03
  0.26190E+03  0.26200E+03  0.26181E+03  0.26169E+03
  0.26116E+03  0.26044E+03  0.25991E+03  0.25949E+03
  0.25877E+03  0.25764E+03  0.25680E+03  0.25633E+03
  0.25610E+03  0.25574E+03  0.25554E+03  0.25575E+03
  0.25604E+03  0.25640E+03  0.25646E+03  0.25635E+03
  0.25638E+03  0.25602E+03  0.25564E+03  0.25529E+03
  0.25518E+03  0.25538E+03  0.25543E+03  0.25542E+03
  0.25545E+03  0.25551E+03  0.25555E+03  0.25554E+03
  0.25548E+03  0.25533E+03  0.25534E+03  0.25539E+03
  0.25535E+03  0.25556E+03  0.25587E+03  0.25622E+03
  0.25655E+03  0.25671E+03  0.25695E+03  0.25738E+03
  0.25776E+03  0.25812E+03  0.25851E+03  0.25903E+03
  0.25940E+03  0.25963E+03  0.25952E+03  0.26005E+03
  0.26058E+03  0.26101E+03  0.26120E+03  0.25956E+03
  0.25791E+03  0.25716E+03  0.25881E+03  0.26101E+03
  0.26025E+03  0.26058E+03  0.26003E+03  0.26011E+03
  0.26003E+03  0.26009E+03  0.26020E+03  0.26032E+03
  0.26051E+03  0.26067E+03  0.26083E+03  0.26104E+03
  0.26109E+03  0.26107E+03  0.26098E+03  0.26076E+03
  0.26042E+03  0.26015E+03  0.26011E+03  0.26022E+03
  0.26034E+03  0.26050E+03  0.26073E+03  0.26099E+03
  0.26117E+03  0.26117E+03  0.26100E+03  0.26093E+03
  0.26103E+03  0.26139E+03  0.26191E+03  0.26224E+03
  0.26214E+03  0.26194E+03  0.26153E+03  0.26103E+03
  0.26066E+03  0.26026E+03  0.25958E+03  0.25862E+03
  0.25773E+03  0.25691E+03  0.25629E+03  0.25603E+03
  0.25603E+03  0.25621E+03  0.25640E+03  0.25667E+03
  0.25678E+03  0.25638E+03  0.25603E+03  0.25552E+03
  0.25480E+03  0.25438E+03  0.25447E+03  0.25477E+03
  0.25497E+03  0.25500E+03  0.25509E+03  0.25504E+03
  0.25502E+03  0.25503E+03  0.25495E+03  0.25483E+03
  0.25479E+03  0.25491E+03  0.25505E+03  0.25537E+03
  0.25570E+03  0.25597E+03  0.25611E+03  0.25633E+03
  0.25674E+03  0.25715E+03  0.25763E+03  0.25801E+03
  0.25826E+03  0.25842E+03  0.25875E+03  0.25911E+03
  0.25927E+03  0.25948E+03  0.25998E+03  0.26031E+03
  0.26088E+03  0.26115E+03  0.25933E+03  0.25896E+03
  0.25904E+03  0.26047E+03  0.25977E+03  0.25990E+03
  0.25935E+03  0.25958E+03  0.25973E+03  0.25967E+03
  0.25965E+03  0.25971E+03  0.25983E+03  0.25996E+03
  0.26010E+03  0.26023E+03  0.26035E+03  0.26042E+03
  0.26045E+03  0.26035E+03  0.26010E+03  0.25983E+03
  0.25965E+03  0.25964E+03  0.25976E+03  0.26001E+03
  0.26022E+03  0.26035E+03  0.26066E+03  0.26098E+03
  0.26104E+03  0.26089E+03  0.26087E+03  0.26117E+03
  0.26179E+03  0.26229E+03  0.26237E+03  0.26209E+03
  0.26162E+03  0.26127E+03  0.26106E+03  0.26078E+03
  0.26033E+03  0.25970E+03  0.25884E+03  0.25801E+03
  0.25746E+03  0.25713E+03  0.25702E+03  0.25697E+03
  0.25698E+03  0.25692E+03  0.25668E+03  0.25625E+03
  0.25595E+03  0.25551E+03  0.25478E+03  0.25418E+03
  0.25426E+03  0.25448E+03  0.25455E+03  0.25465E+03
  0.25466E+03  0.25452E+03  0.25449E+03  0.25453E+03
  0.25453E+03  0.25453E+03  0.25457E+03  0.25467E+03
  0.25487E+03  0.25509E+03  0.25536E+03  0.25565E+03
  0.25597E+03  0.25632E+03  0.25663E+03  0.25690E+03
  0.25727E+03  0.25758E+03  0.25771E+03  0.25787E+03
  0.25812E+03  0.25835E+03  0.25805E+03  0.25769E+03
  0.25798E+03  0.25859E+03  0.25952E+03  0.26179E+03
  0.26051E+03  0.26035E+03  0.25952E+03  0.25959E+03
  0.25974E+03  0.25945E+03  0.25848E+03  0.25867E+03
  0.25902E+03  0.25929E+03  0.25932E+03  0.25934E+03
  0.25944E+03  0.25952E+03  0.25959E+03  0.25970E+03
  0.25983E+03  0.25990E+03  0.25996E+03  0.25999E+03
  0.25988E+03  0.25960E+03  0.25936E+03  0.25927E+03
  0.25928E+03  0.25950E+03  0.25975E+03  0.25991E+03
  0.26002E+03  0.26042E+03  0.26075E+03  0.26081E+03
  0.26076E+03  0.26095E+03  0.26152E+03  0.26211E+03
  0.26241E+03  0.26219E+03  0.26167E+03  0.26132E+03
  0.26111E+03  0.26099E+03  0.26078E+03  0.26049E+03
  0.25987E+03  0.25925E+03  0.25883E+03  0.25859E+03
  0.25834E+03  0.25809E+03  0.25772E+03  0.25732E+03
  0.25692E+03  0.25650E+03  0.25624E+03  0.25597E+03
  0.25541E+03  0.25481E+03  0.25451E+03  0.25456E+03
  0.25456E+03  0.25440E+03  0.25422E+03  0.25409E+03
  0.25397E+03  0.25402E+03  0.25422E+03  0.25439E+03
  0.25444E+03  0.25451E+03  0.25467E+03  0.25484E+03
  0.25511E+03  0.25548E+03  0.25578E+03  0.25605E+03
  0.25634E+03  0.25664E+03  0.25682E+03  0.25684E+03
  0.25693E+03  0.25721E+03  0.25714E+03  0.25616E+03
  0.25461E+03  0.25370E+03  0.25369E+03  0.25459E+03
  0.25658E+03  0.26021E+03  0.25937E+03  0.25949E+03
  0.25952E+03  0.26013E+03  0.25998E+03  0.25943E+03
  0.25799E+03  0.25794E+03  0.25799E+03  0.25824E+03
  0.25849E+03  0.25885E+03  0.25903E+03  0.25921E+03
  0.25928E+03  0.25946E+03  0.25964E+03  0.25974E+03
  0.25983E+03  0.25992E+03  0.25985E+03  0.25959E+03
  0.25925E+03  0.25898E+03  0.25893E+03  0.25906E+03
  0.25931E+03  0.25951E+03  0.25965E+03  0.25979E+03
  0.26020E+03  0.26051E+03  0.26066E+03  0.26074E+03
  0.26118E+03  0.26177E+03  0.26216E+03  0.26208E+03
  0.26162E+03  0.26130E+03  0.26116E+03  0.26101E+03
  0.26094E+03  0.26086E+03  0.26064E+03  0.26031E+03
  0.25995E+03  0.25964E+03  0.25929E+03  0.25891E+03
  0.25847E+03  0.25800E+03  0.25748E+03  0.25698E+03
  0.25667E+03  0.25648E+03  0.25598E+03  0.25560E+03
  0.25526E+03  0.25490E+03  0.25462E+03  0.25435E+03
  0.25414E+03  0.25383E+03  0.25365E+03  0.25366E+03
  0.25381E+03  0.25406E+03  0.25433E+03  0.25453E+03
  0.25465E+03  0.25471E+03  0.25482E+03  0.25502E+03
  0.25539E+03  0.25575E+03  0.25607E+03  0.25628E+03
  0.25629E+03  0.25619E+03  0.25630E+03  0.25613E+03
  0.25460E+03  0.25251E+03  0.25146E+03  0.25099E+03
  0.25079E+03  0.25119E+03  0.25332E+03  0.25717E+03
  0.25761E+03  0.25841E+03  0.25921E+03  0.26074E+03
  0.25991E+03  0.25931E+03  0.25781E+03  0.25739E+03
  0.25739E+03  0.25740E+03  0.25794E+03  0.25805E+03
  0.25830E+03  0.25860E+03  0.25890E+03  0.25914E+03
  0.25940E+03  0.25963E+03  0.25985E+03  0.26006E+03
  0.26011E+03  0.25984E+03  0.25942E+03  0.25902E+03
  0.25875E+03  0.25868E+03  0.25883E+03  0.25908E+03
  0.25934E+03  0.25951E+03  0.25968E+03  0.26001E+03
  0.26033E+03  0.26061E+03  0.26078E+03  0.26129E+03
  0.26172E+03  0.26173E+03  0.26133E+03  0.26102E+03
  0.26091E+03  0.26084E+03  0.26075E+03  0.26075E+03
  0.26076E+03  0.26062E+03  0.26035E+03  0.26016E+03
  0.26003E+03  0.25982E+03  0.25941E+03  0.25901E+03
  0.25839E+03  0.25771E+03  0.25725E+03  0.25700E+03
  0.25649E+03  0.25601E+03  0.25566E+03  0.25535E+03
  0.25500E+03  0.25454E+03  0.25414E+03  0.25379E+03
  0.25360E+03  0.25363E+03  0.25368E+03  0.25377E+03
  0.25396E+03  0.25420E+03  0.25434E+03  0.25429E+03
  0.25426E+03  0.25462E+03  0.25503E+03  0.25530E+03
  0.25560E+03  0.25574E+03  0.25564E+03  0.25555E+03
  0.25543E+03  0.25407E+03  0.25177E+03  0.25052E+03
  0.25030E+03  0.25001E+03  0.24954E+03  0.25029E+03
  0.25145E+03  0.25415E+03  0.25601E+03  0.25713E+03
  0.25913E+03  0.26067E+03  0.25977E+03  0.25903E+03
  0.25667E+03  0.25689E+03  0.25715E+03  0.25695E+03
  0.25667E+03  0.25814E+03  0.25768E+03  0.25791E+03
  0.25829E+03  0.25863E+03  0.25894E+03  0.25927E+03
  0.25958E+03  0.25987E+03  0.26014E+03  0.26013E+03
  0.25976E+03  0.25931E+03  0.25892E+03  0.25871E+03
  0.25863E+03  0.25870E+03  0.25894E+03  0.25929E+03
  0.25954E+03  0.25969E+03  0.25995E+03  0.26027E+03
  0.26053E+03  0.26074E+03  0.26114E+03  0.26120E+03
  0.26093E+03  0.26072E+03  0.26058E+03  0.26053E+03
  0.26052E+03  0.26050E+03  0.26048E+03  0.26048E+03
  0.26034E+03  0.26031E+03  0.26009E+03  0.25986E+03
  0.25960E+03  0.25929E+03  0.25899E+03  0.25849E+03
  0.25789E+03  0.25741E+03  0.25700E+03  0.25644E+03
  0.25578E+03  0.25521E+03  0.25481E+03  0.25464E+03
  0.25438E+03  0.25387E+03  0.25366E+03  0.25357E+03
  0.25358E+03  0.25367E+03  0.25389E+03  0.25396E+03
  0.25392E+03  0.25391E+03  0.25403E+03  0.25441E+03
  0.25468E+03  0.25485E+03  0.25490E+03  0.25499E+03
  0.25489E+03  0.25481E+03  0.25409E+03  0.25200E+03
  0.25033E+03  0.24967E+03  0.24936E+03  0.24906E+03
  0.24943E+03  0.25008E+03  0.25143E+03  0.25421E+03
  0.25595E+03  0.25711E+03  0.25943E+03  0.26101E+03
  0.25951E+03  0.25901E+03  0.25577E+03  0.25596E+03
  0.25628E+03  0.25655E+03  0.25675E+03  0.25714E+03
  0.25752E+03  0.25758E+03  0.25766E+03  0.25794E+03
  0.25833E+03  0.25876E+03  0.25913E+03  0.25944E+03
  0.25975E+03  0.25996E+03  0.25988E+03  0.25958E+03
  0.25920E+03  0.25892E+03  0.25879E+03  0.25870E+03
  0.25870E+03  0.25898E+03  0.25939E+03  0.25970E+03
  0.25987E+03  0.26003E+03  0.26028E+03  0.26045E+03
  0.26050E+03  0.26054E+03  0.26055E+03  0.26052E+03
  0.26049E+03  0.26040E+03  0.26028E+03  0.26018E+03
  0.26013E+03  0.26008E+03  0.26003E+03  0.25995E+03
  0.25980E+03  0.25966E+03  0.25955E+03  0.25931E+03
  0.25887E+03  0.25852E+03  0.25811E+03  0.25756E+03
  0.25716E+03  0.25668E+03  0.25609E+03  0.25532E+03
  0.25450E+03  0.25399E+03  0.25393E+03  0.25388E+03
  0.25366E+03  0.25340E+03  0.25339E+03  0.25355E+03
  0.25378E+03  0.25395E+03  0.25386E+03  0.25377E+03
  0.25389E+03  0.25409E+03  0.25421E+03  0.25424E+03
  0.25432E+03  0.25429E+03  0.25407E+03  0.25363E+03
  0.25236E+03  0.25044E+03  0.24959E+03  0.24909E+03
  0.24883E+03  0.24893E+03  0.24979E+03  0.25054E+03
  0.25138E+03  0.25450E+03  0.25660E+03  0.25775E+03
  0.25986E+03  0.26017E+03  0.25867E+03  0.25822E+03
  0.25513E+03  0.25533E+03  0.25547E+03  0.25560E+03
  0.25587E+03  0.25629E+03  0.25676E+03  0.25730E+03
  0.25757E+03  0.25772E+03  0.25777E+03  0.25808E+03
  0.25856E+03  0.25891E+03  0.25922E+03  0.25948E+03
  0.25959E+03  0.25951E+03  0.25934E+03  0.25910E+03
  0.25896E+03  0.25894E+03  0.25881E+03  0.25881E+03
  0.25911E+03  0.25955E+03  0.25990E+03  0.26005E+03
  0.26014E+03  0.26033E+03  0.26043E+03  0.26036E+03
  0.26018E+03  0.26002E+03  0.26000E+03  0.26012E+03
  0.26018E+03  0.26006E+03  0.25993E+03  0.25975E+03
  0.25953E+03  0.25936E+03  0.25915E+03  0.25900E+03
  0.25899E+03  0.25886E+03  0.25859E+03  0.25813E+03
  0.25758E+03  0.25709E+03  0.25654E+03  0.25609E+03
  0.25562E+03  0.25528E+03  0.25492E+03  0.25414E+03
  0.25345E+03  0.25319E+03  0.25321E+03  0.25306E+03
  0.25298E+03  0.25340E+03  0.25352E+03  0.25352E+03
  0.25363E+03  0.25362E+03  0.25359E+03  0.25374E+03
  0.25360E+03  0.25370E+03  0.25374E+03  0.25365E+03
  0.25327E+03  0.25242E+03  0.25090E+03  0.24972E+03
  0.24900E+03  0.24875E+03  0.24867E+03  0.24919E+03
  0.25021E+03  0.25088E+03  0.25205E+03  0.25507E+03
  0.25713E+03  0.25796E+03  0.25951E+03  0.25871E+03
  0.25772E+03  0.25859E+03  0.25422E+03  0.25438E+03
  0.25450E+03  0.25470E+03  0.25486E+03  0.25515E+03
  0.25560E+03  0.25610E+03  0.25676E+03  0.25734E+03
  0.25767E+03  0.25772E+03  0.25797E+03  0.25830E+03
  0.25855E+03  0.25883E+03  0.25909E+03  0.25912E+03
  0.25899E+03  0.25902E+03  0.25903E+03  0.25901E+03
  0.25906E+03  0.25896E+03  0.25896E+03  0.25928E+03
  0.25967E+03  0.26000E+03  0.26013E+03  0.26012E+03
  0.26019E+03  0.26029E+03  0.26024E+03  0.26004E+03
  0.25979E+03  0.25966E+03  0.25970E+03  0.25981E+03
  0.25980E+03  0.25964E+03  0.25940E+03  0.25914E+03
  0.25881E+03  0.25855E+03  0.25839E+03  0.25829E+03
  0.25811E+03  0.25773E+03  0.25718E+03  0.25662E+03
  0.25604E+03  0.25550E+03  0.25510E+03  0.25466E+03
  0.25403E+03  0.25375E+03  0.25352E+03  0.25290E+03
  0.25255E+03  0.25250E+03  0.25253E+03  0.25279E+03
  0.25324E+03  0.25317E+03  0.25309E+03  0.25308E+03
  0.25314E+03  0.25334E+03  0.25313E+03  0.25308E+03
  0.25307E+03  0.25297E+03  0.25239E+03  0.25145E+03
  0.25032E+03  0.24936E+03  0.24863E+03  0.24849E+03
  0.24892E+03  0.24972E+03  0.25051E+03  0.25145E+03
  0.25172E+03  0.25478E+03  0.25649E+03  0.25720E+03
  0.25774E+03  0.25811E+03  0.25891E+03  0.25969E+03
  0.25309E+03  0.25346E+03  0.25372E+03  0.25389E+03
  0.25409E+03  0.25430E+03  0.25454E+03  0.25496E+03
  0.25551E+03  0.25602E+03  0.25669E+03  0.25726E+03
  0.25755E+03  0.25776E+03  0.25801E+03  0.25816E+03
  0.25837E+03  0.25840E+03  0.25841E+03  0.25845E+03
  0.25870E+03  0.25891E+03  0.25901E+03  0.25911E+03
  0.25904E+03  0.25908E+03  0.25936E+03  0.25969E+03
  0.26004E+03  0.26017E+03  0.26015E+03  0.26007E+03
  0.25998E+03  0.25984E+03  0.25970E+03  0.25946E+03
  0.25923E+03  0.25913E+03  0.25914E+03  0.25920E+03
  0.25917E+03  0.25900E+03  0.25872E+03  0.25843E+03
  0.25825E+03  0.25798E+03  0.25764E+03  0.25741E+03
  0.25716E+03  0.25672E+03  0.25602E+03  0.25533E+03
  0.25485E+03  0.25482E+03  0.25455E+03  0.25301E+03
  0.25272E+03  0.25268E+03  0.25223E+03  0.25194E+03
  0.25198E+03  0.25205E+03  0.25256E+03  0.25296E+03
  0.25284E+03  0.25255E+03  0.25262E+03  0.25267E+03
  0.25261E+03  0.25246E+03  0.25250E+03  0.25222E+03
  0.25161E+03  0.25072E+03  0.24983E+03  0.24914E+03
  0.24864E+03  0.24877E+03  0.24911E+03  0.24993E+03
  0.25074E+03  0.25235E+03  0.25332E+03  0.25471E+03
  0.25638E+03  0.25835E+03  0.25845E+03  0.25885E+03
  0.25965E+03  0.25979E+03  0.25293E+03  0.25322E+03
  0.25335E+03  0.25340E+03  0.25362E+03  0.25383E+03
  0.25398E+03  0.25412E+03  0.25449E+03  0.25498E+03
  0.25540E+03  0.25596E+03  0.25665E+03  0.25716E+03
  0.25749E+03  0.25774E+03  0.25784E+03  0.25775E+03
  0.25782E+03  0.25792E+03  0.25800E+03  0.25833E+03
  0.25869E+03  0.25899E+03  0.25904E+03  0.25902E+03
  0.25908E+03  0.25926E+03  0.25952E+03  0.25975E+03
  0.25983E+03  0.25983E+03  0.25977E+03  0.25968E+03
  0.25952E+03  0.25934E+03  0.25907E+03  0.25882E+03
  0.25871E+03  0.25861E+03  0.25855E+03  0.25838E+03
  0.25820E+03  0.25798E+03  0.25799E+03  0.25778E+03
  0.25744E+03  0.25719E+03  0.25708E+03  0.25682E+03
  0.25592E+03  0.25505E+03  0.25464E+03  0.25470E+03
  0.25554E+03  0.25382E+03  0.25268E+03  0.25192E+03
  0.25171E+03  0.25142E+03  0.25141E+03  0.25134E+03
  0.25180E+03  0.25233E+03  0.25249E+03  0.25236E+03
  0.25227E+03  0.25219E+03  0.25211E+03  0.25202E+03
  0.25197E+03  0.25159E+03  0.25086E+03  0.25010E+03
  0.24945E+03  0.24914E+03  0.24895E+03  0.24892E+03
  0.24927E+03  0.25005E+03  0.25087E+03  0.25213E+03
  0.25346E+03  0.25514E+03  0.25689E+03  0.25788E+03
  0.25819E+03  0.25909E+03  0.25960E+03  0.25985E+03
  0.25192E+03  0.25214E+03  0.25238E+03  0.25257E+03
  0.25271E+03  0.25306E+03  0.25347E+03  0.25378E+03
  0.25393E+03  0.25412E+03  0.25444E+03  0.25488E+03
  0.25540E+03  0.25605E+03  0.25676E+03  0.25724E+03
  0.25751E+03  0.25747E+03  0.25703E+03  0.25705E+03
  0.25726E+03  0.25752E+03  0.25790E+03  0.25840E+03
  0.25886E+03  0.25896E+03  0.25894E+03  0.25891E+03
  0.25896E+03  0.25895E+03  0.25890E+03  0.25888E+03
  0.25893E+03  0.25899E+03  0.25904E+03  0.25895E+03
  0.25875E+03  0.25853E+03  0.25835E+03  0.25835E+03
  0.25823E+03  0.25809E+03  0.25780E+03  0.25757E+03
  0.25716E+03  0.25695E+03  0.25697E+03  0.25695E+03
  0.25665E+03  0.25651E+03  0.25565E+03  0.25491E+03
  0.25474E+03  0.25490E+03  0.25495E+03  0.25357E+03
  0.25222E+03  0.25095E+03  0.25042E+03  0.25028E+03
  0.25060E+03  0.25017E+03  0.25110E+03  0.25172E+03
  0.25208E+03  0.25228E+03  0.25217E+03  0.25201E+03
  0.25178E+03  0.25166E+03  0.25149E+03  0.25110E+03
  0.25043E+03  0.24976E+03  0.24929E+03  0.24908E+03
  0.24894E+03  0.24909E+03  0.24930E+03  0.24972E+03
  0.25073E+03  0.25190E+03  0.25304E+03  0.25463E+03
  0.25631E+03  0.25764E+03  0.25818E+03  0.25898E+03
  0.25912E+03  0.25963E+03  0.25066E+03  0.25049E+03
  0.25034E+03  0.25045E+03  0.25071E+03  0.25095E+03
  0.25121E+03  0.25165E+03  0.25237E+03  0.25315E+03
  0.25373E+03  0.25410E+03  0.25449E+03  0.25499E+03
  0.25559E+03  0.25639E+03  0.25696E+03  0.25715E+03
  0.25676E+03  0.25656E+03  0.25665E+03  0.25689E+03
  0.25717E+03  0.25753E+03  0.25814E+03  0.25861E+03
  0.25871E+03  0.25861E+03  0.25842E+03  0.25824E+03
  0.25812E+03  0.25812E+03  0.25813E+03  0.25812E+03
  0.25811E+03  0.25818E+03  0.25819E+03  0.25806E+03
  0.25782E+03  0.25756E+03  0.25756E+03  0.25762E+03
  0.25767E+03  0.25747E+03  0.25728E+03  0.25686E+03
  0.25651E+03  0.25642E+03  0.25616E+03  0.25639E+03
  0.25578E+03  0.25492E+03  0.25439E+03  0.25428E+03
  0.25447E+03  0.25307E+03  0.25095E+03  0.24954E+03
  0.24907E+03  0.24914E+03  0.24880E+03  0.24914E+03
  0.25013E+03  0.25115E+03  0.25176E+03  0.25221E+03
  0.25213E+03  0.25182E+03  0.25153E+03  0.25119E+03
  0.25109E+03  0.25075E+03  0.24999E+03  0.24937E+03
  0.24911E+03  0.24901E+03  0.24890E+03  0.24937E+03
  0.24976E+03  0.25014E+03  0.25066E+03  0.25166E+03
  0.25277E+03  0.25421E+03  0.25558E+03  0.25667E+03
  0.25793E+03  0.25870E+03  0.25886E+03  0.25922E+03
  0.24982E+03  0.24959E+03  0.24910E+03  0.24881E+03
  0.24886E+03  0.24925E+03  0.24988E+03  0.25035E+03
  0.25053E+03  0.25084E+03  0.25163E+03  0.25292E+03
  0.25374E+03  0.25415E+03  0.25462E+03  0.25527E+03
  0.25609E+03  0.25660E+03  0.25670E+03  0.25712E+03
  0.25720E+03  0.25687E+03  0.25709E+03  0.25727E+03
  0.25714E+03  0.25759E+03  0.25799E+03  0.25798E+03
  0.25781E+03  0.25772E+03  0.25779E+03  0.25783E+03
  0.25774E+03  0.25768E+03  0.25771E+03  0.25771E+03
  0.25764E+03  0.25752E+03  0.25748E+03  0.25730E+03
  0.25707E+03  0.25699E+03  0.25701E+03  0.25703E+03
  0.25699E+03  0.25689E+03  0.25675E+03  0.25669E+03
  0.25626E+03  0.25621E+03  0.25579E+03  0.25464E+03
  0.25390E+03  0.25366E+03  0.25327E+03  0.25165E+03
  0.24996E+03  0.24816E+03  0.24751E+03  0.24674E+03
  0.24737E+03  0.24872E+03  0.24929E+03  0.25038E+03
  0.25113E+03  0.25198E+03  0.25195E+03  0.25159E+03
  0.25133E+03  0.25094E+03  0.25076E+03  0.25031E+03
  0.24951E+03  0.24899E+03  0.24897E+03  0.24882E+03
  0.24882E+03  0.24941E+03  0.24997E+03  0.25043E+03
  0.25083E+03  0.25174E+03  0.25256E+03  0.25357E+03
  0.25468E+03  0.25603E+03  0.25692E+03  0.25719E+03
  0.25765E+03  0.25847E+03  0.24818E+03  0.24812E+03
  0.24794E+03  0.24791E+03  0.24817E+03  0.24836E+03
  0.24844E+03  0.24891E+03  0.24970E+03  0.25015E+03
  0.25008E+03  0.25000E+03  0.25107E+03  0.25252E+03
  0.25368E+03  0.25433E+03  0.25489E+03  0.25552E+03
  0.25604E+03  0.25670E+03  0.25686E+03  0.25720E+03
  0.25702E+03  0.25727E+03  0.25707E+03  0.25681E+03
  0.25695E+03  0.25719E+03  0.25737E+03  0.25755E+03
  0.25770E+03  0.25781E+03  0.25776E+03  0.25767E+03
  0.25764E+03  0.25762E+03  0.25750E+03  0.25727E+03
  0.25705E+03  0.25699E+03  0.25703E+03  0.25701E+03
  0.25681E+03  0.25661E+03  0.25656E+03  0.25649E+03
  0.25637E+03  0.25614E+03  0.25614E+03  0.25568E+03
  0.25518E+03  0.25490E+03  0.25421E+03  0.25344E+03
  0.25273E+03  0.25051E+03  0.24874E+03  0.24700E+03
  0.24700E+03  0.24715E+03  0.24709E+03  0.24761E+03
  0.24854E+03  0.24928E+03  0.25083E+03  0.25188E+03
  0.25178E+03  0.25146E+03  0.25115E+03  0.25085E+03
  0.25049E+03  0.24994E+03  0.24912E+03  0.24876E+03
  0.24878E+03  0.24869E+03  0.24870E+03  0.24936E+03
  0.25005E+03  0.25082E+03  0.25125E+03  0.25167E+03
  0.25241E+03  0.25315E+03  0.25362E+03  0.25436E+03
  0.25525E+03  0.25637E+03  0.25739E+03  0.25802E+03