# vtk DataFile Version 1.0
Wind speeds at mid-athmosphere
ASCII
DATASET RECTILINEAR_GRID
DIMENSIONS 90 60 5
X_COORDINATES 90 float
-45 -44 -43 -42 -41 -40 -39 -38 -37 -36 -35 -34 -33 -32 -31
-30 -29 -28 -27 -26 -25 -24 -23 -22 -21 -20 -19 -18 -17 -16
-15 -14 -13 -12 -11 -10  -9  -8  -7  -6  -5  -4  -3  -2  -1
  0   1   2   3   4   5   6   7   8   9  10  11  12  13  14
 15  16  17  18  19  20  21  22  23  24  25  26  27  28  29
 30  31  32  33  34  35  36  37  38  39  40  41  42  43  44
Y_COORDINATES 60 float
20 21 22 23 24 25 26 27 28 29 30 31 32 33 34 35 36 37 38 39 40 41 42 43 44 45 46 47 48 49
50 51 52 53 54 55 56 57 58 59 60 61 62 63 64 65 66 67 68 69 70 71 72 73 74 75 76 77 78 79
Z_COORDINATES 5 float
1 21 41 61 81

POINT_DATA 27000
VECTORS Wind float
  0.32573E+01  0.48488E+01  0.00000E+00
  0.32466E+01  0.35480E+01  0.00000E+00
  0.33980E+01  0.26114E+01  0.00000E+00
  0.34146E+01  0.25538E+01  0.00000E+00
  0.29790E+01  0.26866E+01  0.00000E+00
  0.25337E+01  0.28839E+01  0.00000E+00
  0.23687E+01  0.27394E+01  0.00000E+00
  0.26011E+01  0.24161E+01  0.00000E+00
  0.29722E+01  0.24034E+01  0.00000E+00
  0.31704E+01  0.17404E+01  0.00000E+00
  0.35894E+01  0.44348E+00  0.00000E+00
  0.37886E+01 -0.10653E+01  0.00000E+00
  0.39976E+01 -0.26630E+01  0.00000E+00
  0.42925E+01 -0.40809E+01  0.00000E+00
  0.38071E+01 -0.52469E+01  0.00000E+00
  0.24341E+01 -0.60184E+01  0.00000E+00
  0.88819E+00 -0.65350E+01  0.00000E+00
 -0.21630E+00 -0.68134E+01  0.00000E+00
 -0.54345E+00 -0.63788E+01  0.00000E+00
 -0.41064E+00 -0.48319E+01  0.00000E+00
 -0.61279E+00 -0.40536E+01  0.00000E+00
 -0.62158E+00 -0.41600E+01  0.00000E+00
 -0.52587E+00 -0.40448E+01  0.00000E+00
 -0.66455E+00 -0.35624E+01  0.00000E+00
 -0.12339E+01 -0.39110E+01  0.00000E+00
 -0.21587E+01 -0.56581E+01  0.00000E+00
 -0.25981E+01 -0.68280E+01  0.00000E+00
 -0.30132E+01 -0.75292E+01  0.00000E+00
 -0.42671E+01 -0.99159E+01  0.00000E+00
 -0.45601E+01 -0.12038E+02  0.00000E+00
 -0.35552E+01 -0.13249E+02  0.00000E+00
 -0.32515E+01 -0.13087E+02  0.00000E+00
 -0.29341E+01 -0.12497E+02  0.00000E+00
 -0.38091E+01 -0.12649E+02  0.00000E+00
 -0.24097E+01 -0.10593E+02  0.00000E+00
  0.10728E+01 -0.61278E+01  0.00000E+00
  0.54038E+01 -0.12733E+01  0.00000E+00
  0.95230E+01  0.30001E+01  0.00000E+00
  0.13491E+02  0.69259E+01  0.00000E+00
  0.14465E+02  0.72667E+01  0.00000E+00
  0.13806E+02  0.67599E+01  0.00000E+00
  0.14369E+02  0.85284E+01  0.00000E+00
  0.12558E+02  0.79357E+01  0.00000E+00
  0.12125E+02  0.84943E+01  0.00000E+00
  0.13972E+02  0.75782E+01  0.00000E+00
  0.15479E+02  0.65333E+01  0.00000E+00
  0.15167E+02  0.48829E+01  0.00000E+00
  0.14659E+02  0.36310E+01  0.00000E+00
  0.14285E+02  0.24318E+01  0.00000E+00
  0.13793E+02  0.13165E+01  0.00000E+00
  0.13426E+02  0.32727E+00  0.00000E+00
  0.13136E+02 -0.30359E+00  0.00000E+00
  0.12990E+02 -0.74304E+00  0.00000E+00
  0.13337E+02 -0.96765E+00  0.00000E+00
  0.13952E+02 -0.14384E+01  0.00000E+00
  0.15322E+02 -0.20028E+01  0.00000E+00
  0.16098E+02 -0.28846E+01  0.00000E+00
  0.16544E+02 -0.42860E+01  0.00000E+00
  0.16947E+02 -0.57928E+01  0.00000E+00
  0.17360E+02 -0.70975E+01  0.00000E+00
  0.17612E+02 -0.84071E+01  0.00000E+00
  0.17517E+02 -0.95077E+01  0.00000E+00
  0.16618E+02 -0.96464E+01  0.00000E+00
  0.17104E+02 -0.98837E+01  0.00000E+00
  0.16767E+02 -0.99510E+01  0.00000E+00
  0.16289E+02 -0.96093E+01  0.00000E+00
  0.15653E+02 -0.89862E+01  0.00000E+00
  0.15413E+02 -0.83563E+01  0.00000E+00
  0.15542E+02 -0.77206E+01  0.00000E+00
  0.15639E+02 -0.66659E+01  0.00000E+00
  0.15647E+02 -0.50350E+01  0.00000E+00
  0.15791E+02 -0.32362E+01  0.00000E+00
  0.16259E+02 -0.18212E+01  0.00000E+00
  0.16714E+02 -0.32703E+00  0.00000E+00
  0.17027E+02  0.14230E+01  0.00000E+00
  0.17021E+02  0.36554E+01  0.00000E+00
  0.16919E+02  0.62511E+01  0.00000E+00
  0.17429E+02  0.85245E+01  0.00000E+00
  0.17157E+02  0.10192E+02  0.00000E+00
  0.16062E+02  0.11481E+02  0.00000E+00
  0.15485E+02  0.10597E+02  0.00000E+00
  0.14599E+02  0.96115E+01  0.00000E+00
  0.11627E+02  0.93595E+01  0.00000E+00
  0.10619E+02  0.76193E+01  0.00000E+00
  0.88286E+01  0.62804E+01  0.00000E+00
  0.70337E+01  0.66085E+01  0.00000E+00
  0.76821E+01  0.57521E+01  0.00000E+00
  0.85239E+01  0.51564E+01  0.00000E+00
  0.74458E+01  0.37023E+01  0.00000E+00
  0.69136E+01  0.32452E+01  0.00000E+00
  0.48003E+01  0.42697E+01  0.00000E+00
  0.45317E+01  0.32941E+01  0.00000E+00
  0.42564E+01  0.27032E+01  0.00000E+00
  0.37319E+01  0.27345E+01  0.00000E+00
  0.35044E+01  0.29113E+01  0.00000E+00
  0.35815E+01  0.29816E+01  0.00000E+00
  0.37173E+01  0.29513E+01  0.00000E+00
  0.38120E+01  0.26681E+01  0.00000E+00
  0.42456E+01  0.23087E+01  0.00000E+00
  0.46899E+01  0.14777E+01  0.00000E+00
  0.49478E+01  0.89966E-01  0.00000E+00
  0.51323E+01 -0.14745E+01  0.00000E+00
  0.50718E+01 -0.29628E+01  0.00000E+00
  0.44194E+01 -0.40067E+01  0.00000E+00
  0.26968E+01 -0.45175E+01  0.00000E+00
  0.89893E+00 -0.51835E+01  0.00000E+00
 -0.11474E+00 -0.58212E+01  0.00000E+00
 -0.90966E+00 -0.55409E+01  0.00000E+00
 -0.10044E+01 -0.45458E+01  0.00000E+00
 -0.66943E+00 -0.35995E+01  0.00000E+00
 -0.45654E+00 -0.35800E+01  0.00000E+00
 -0.34130E+00 -0.39677E+01  0.00000E+00
 -0.18017E+00 -0.43915E+01  0.00000E+00
 -0.25927E+00 -0.39081E+01  0.00000E+00
 -0.92724E+00 -0.35516E+01  0.00000E+00
 -0.18608E+01 -0.47303E+01  0.00000E+00
 -0.25552E+01 -0.63231E+01  0.00000E+00
 -0.29810E+01 -0.74637E+01  0.00000E+00
 -0.34116E+01 -0.88993E+01  0.00000E+00
 -0.32622E+01 -0.10652E+02  0.00000E+00
 -0.29741E+01 -0.12039E+02  0.00000E+00
 -0.27681E+01 -0.11893E+02  0.00000E+00
 -0.28706E+01 -0.11248E+02  0.00000E+00
 -0.39741E+01 -0.11535E+02  0.00000E+00
 -0.51001E+01 -0.12292E+02  0.00000E+00
 -0.39077E+01 -0.99003E+01  0.00000E+00
  0.61670E+00 -0.38895E+01  0.00000E+00
  0.33081E+01  0.58411E+00  0.00000E+00
  0.55767E+01  0.34464E+01  0.00000E+00
  0.83315E+01  0.56740E+01  0.00000E+00
  0.10132E+02  0.59982E+01  0.00000E+00
  0.11062E+02  0.69425E+01  0.00000E+00
  0.12414E+02  0.82081E+01  0.00000E+00
  0.11416E+02  0.80577E+01  0.00000E+00
  0.12193E+02  0.84923E+01  0.00000E+00
  0.13961E+02  0.75616E+01  0.00000E+00
  0.15103E+02  0.60421E+01  0.00000E+00
  0.15772E+02  0.42550E+01  0.00000E+00
  0.15683E+02  0.26652E+01  0.00000E+00
  0.15326E+02  0.12345E+01  0.00000E+00
  0.14831E+02  0.50903E-01  0.00000E+00
  0.14480E+02 -0.82312E+00  0.00000E+00
  0.14570E+02 -0.11591E+01  0.00000E+00
  0.14783E+02 -0.16747E+01  0.00000E+00
  0.15425E+02 -0.22274E+01  0.00000E+00
  0.16497E+02 -0.33553E+01  0.00000E+00
  0.17485E+02 -0.46395E+01  0.00000E+00
  0.17872E+02 -0.57762E+01  0.00000E+00
  0.17976E+02 -0.67723E+01  0.00000E+00
  0.18134E+02 -0.75135E+01  0.00000E+00
  0.18078E+02 -0.79188E+01  0.00000E+00
  0.17779E+02 -0.84442E+01  0.00000E+00
  0.17729E+02 -0.87411E+01  0.00000E+00
  0.17408E+02 -0.89130E+01  0.00000E+00
  0.17154E+02 -0.92841E+01  0.00000E+00
  0.16928E+02 -0.91708E+01  0.00000E+00
  0.16435E+02 -0.88407E+01  0.00000E+00
  0.16029E+02 -0.80516E+01  0.00000E+00
  0.15936E+02 -0.69169E+01  0.00000E+00
  0.15759E+02 -0.57343E+01  0.00000E+00
  0.15516E+02 -0.42343E+01  0.00000E+00
  0.15701E+02 -0.30057E+01  0.00000E+00
  0.16059E+02 -0.15126E+01  0.00000E+00
  0.16556E+02  0.31848E+00  0.00000E+00
  0.17226E+02  0.22560E+01  0.00000E+00
  0.17576E+02  0.43448E+01  0.00000E+00
  0.17325E+02  0.67775E+01  0.00000E+00
  0.17620E+02  0.93527E+01  0.00000E+00
  0.18211E+02  0.11593E+02  0.00000E+00
  0.17698E+02  0.13305E+02  0.00000E+00
  0.18839E+02  0.13000E+02  0.00000E+00
  0.16921E+02  0.11340E+02  0.00000E+00
  0.13072E+02  0.11209E+02  0.00000E+00
  0.12655E+02  0.97238E+01  0.00000E+00
  0.10964E+02  0.83107E+01  0.00000E+00
  0.76665E+01  0.93507E+01  0.00000E+00
  0.89458E+01  0.80646E+01  0.00000E+00
  0.98999E+01  0.69532E+01  0.00000E+00
  0.78872E+01  0.51886E+01  0.00000E+00
  0.76489E+01  0.39327E+01  0.00000E+00
  0.56841E+01  0.41564E+01  0.00000E+00
  0.47446E+01  0.35197E+01  0.00000E+00
  0.37632E+01  0.31154E+01  0.00000E+00
  0.30337E+01  0.31427E+01  0.00000E+00
  0.30396E+01  0.27286E+01  0.00000E+00
  0.33970E+01  0.23927E+01  0.00000E+00
  0.35571E+01  0.22140E+01  0.00000E+00
  0.37730E+01  0.21476E+01  0.00000E+00
  0.42368E+01  0.17462E+01  0.00000E+00
  0.46245E+01  0.76770E+00  0.00000E+00
  0.44683E+01 -0.53406E+00  0.00000E+00
  0.40972E+01 -0.17704E+01  0.00000E+00
  0.37007E+01 -0.29188E+01  0.00000E+00
  0.27056E+01 -0.31581E+01  0.00000E+00
  0.11997E+01 -0.35858E+01  0.00000E+00
  0.20166E+00 -0.44755E+01  0.00000E+00
 -0.72021E+00 -0.45262E+01  0.00000E+00
 -0.13130E+01 -0.36591E+01  0.00000E+00
 -0.11831E+01 -0.30419E+01  0.00000E+00
 -0.68994E+00 -0.30741E+01  0.00000E+00
 -0.10009E+00 -0.35936E+01  0.00000E+00
  0.34131E+00 -0.43661E+01  0.00000E+00
  0.45850E+00 -0.51503E+01  0.00000E+00
 -0.62007E-01 -0.46854E+01  0.00000E+00
 -0.91064E+00 -0.39745E+01  0.00000E+00
 -0.18647E+01 -0.42323E+01  0.00000E+00
 -0.28354E+01 -0.56044E+01  0.00000E+00
 -0.30825E+01 -0.66337E+01  0.00000E+00
 -0.27847E+01 -0.77030E+01  0.00000E+00
 -0.26206E+01 -0.95272E+01  0.00000E+00
 -0.23364E+01 -0.11027E+02  0.00000E+00
 -0.22534E+01 -0.11428E+02  0.00000E+00
 -0.20825E+01 -0.10892E+02  0.00000E+00
 -0.21616E+01 -0.10402E+02  0.00000E+00
 -0.40454E+01 -0.10420E+02  0.00000E+00
 -0.51401E+01 -0.10042E+02  0.00000E+00
 -0.31841E+01 -0.70624E+01  0.00000E+00
  0.12935E+01 -0.15536E+01  0.00000E+00
  0.26050E+01  0.19806E+01  0.00000E+00
  0.37349E+01  0.42980E+01  0.00000E+00
  0.50923E+01  0.52042E+01  0.00000E+00
  0.62261E+01  0.52687E+01  0.00000E+00
  0.88950E+01  0.59933E+01  0.00000E+00
  0.11817E+02  0.62013E+01  0.00000E+00
  0.11939E+02  0.46837E+01  0.00000E+00
  0.11661E+02  0.43341E+01  0.00000E+00
  0.12393E+02  0.42745E+01  0.00000E+00
  0.13576E+02  0.38029E+01  0.00000E+00
  0.14504E+02  0.27296E+01  0.00000E+00
  0.14762E+02  0.15939E+01  0.00000E+00
  0.14428E+02  0.76770E+00  0.00000E+00
  0.14327E+02  0.20129E+00  0.00000E+00
  0.15049E+02 -0.35828E+00  0.00000E+00
  0.15287E+02 -0.92273E+00  0.00000E+00
  0.15919E+02 -0.14169E+01  0.00000E+00
  0.16662E+02 -0.22880E+01  0.00000E+00
  0.17544E+02 -0.34481E+01  0.00000E+00
  0.18420E+02 -0.43954E+01  0.00000E+00
  0.18514E+02 -0.53778E+01  0.00000E+00
  0.18874E+02 -0.61874E+01  0.00000E+00
  0.18463E+02 -0.68866E+01  0.00000E+00
  0.18144E+02 -0.71864E+01  0.00000E+00
  0.17864E+02 -0.74227E+01  0.00000E+00
  0.17690E+02 -0.76464E+01  0.00000E+00
  0.17072E+02 -0.77186E+01  0.00000E+00
  0.17428E+02 -0.80038E+01  0.00000E+00
  0.16922E+02 -0.78016E+01  0.00000E+00
  0.16200E+02 -0.69510E+01  0.00000E+00
  0.15483E+02 -0.58143E+01  0.00000E+00
  0.15070E+02 -0.48495E+01  0.00000E+00
  0.15046E+02 -0.39423E+01  0.00000E+00
  0.14829E+02 -0.25653E+01  0.00000E+00
  0.15362E+02 -0.13339E+01  0.00000E+00
  0.15707E+02  0.11145E+00  0.00000E+00
  0.16310E+02  0.18087E+01  0.00000E+00
  0.17123E+02  0.37648E+01  0.00000E+00
  0.17607E+02  0.63585E+01  0.00000E+00
  0.17620E+02  0.90187E+01  0.00000E+00
  0.18277E+02  0.11771E+02  0.00000E+00
  0.19435E+02  0.13706E+02  0.00000E+00
  0.19801E+02  0.14078E+02  0.00000E+00
  0.19595E+02  0.12661E+02  0.00000E+00
  0.15194E+02  0.11569E+02  0.00000E+00
  0.13480E+02  0.10414E+02  0.00000E+00
  0.12532E+02  0.96954E+01  0.00000E+00
  0.86626E+01  0.10933E+02  0.00000E+00
  0.95542E+01  0.97140E+01  0.00000E+00
  0.10417E+02  0.73361E+01  0.00000E+00
  0.84067E+01  0.63146E+01  0.00000E+00
  0.79692E+01  0.53458E+01  0.00000E+00
  0.58755E+01  0.46915E+01  0.00000E+00
  0.47925E+01  0.44230E+01  0.00000E+00
  0.33247E+01  0.43478E+01  0.00000E+00
  0.25815E+01  0.37941E+01  0.00000E+00
  0.26704E+01  0.29484E+01  0.00000E+00
  0.27671E+01  0.26759E+01  0.00000E+00
  0.28716E+01  0.21447E+01  0.00000E+00
  0.30200E+01  0.15275E+01  0.00000E+00
  0.32358E+01  0.91125E+00  0.00000E+00
  0.31538E+01  0.36340E+00  0.00000E+00
  0.25640E+01 -0.47449E+00  0.00000E+00
  0.22564E+01 -0.19081E+01  0.00000E+00
  0.18716E+01 -0.24891E+01  0.00000E+00
  0.12808E+01 -0.24706E+01  0.00000E+00
  0.49463E+00 -0.29979E+01  0.00000E+00
 -0.41357E+00 -0.32440E+01  0.00000E+00
 -0.12671E+01 -0.29608E+01  0.00000E+00
 -0.14829E+01 -0.23475E+01  0.00000E+00
 -0.94873E+00 -0.24559E+01  0.00000E+00
 -0.16552E+00 -0.31200E+01  0.00000E+00
  0.71631E+00 -0.40321E+01  0.00000E+00
  0.13550E+01 -0.48173E+01  0.00000E+00
  0.13276E+01 -0.52255E+01  0.00000E+00
  0.18702E+00 -0.46737E+01  0.00000E+00
 -0.10825E+01 -0.40858E+01  0.00000E+00
 -0.20542E+01 -0.41024E+01  0.00000E+00
 -0.30444E+01 -0.50175E+01  0.00000E+00
 -0.32046E+01 -0.61600E+01  0.00000E+00
 -0.27895E+01 -0.71913E+01  0.00000E+00
 -0.24097E+01 -0.85692E+01  0.00000E+00
 -0.21899E+01 -0.99432E+01  0.00000E+00
 -0.21694E+01 -0.10748E+02  0.00000E+00
 -0.20044E+01 -0.10744E+02  0.00000E+00
 -0.15386E+01 -0.10027E+02  0.00000E+00
 -0.18267E+01 -0.93358E+01  0.00000E+00
 -0.38716E+01 -0.82528E+01  0.00000E+00
 -0.46138E+01 -0.65673E+01  0.00000E+00
 -0.28960E+01 -0.46512E+01  0.00000E+00
  0.69971E+00 -0.82703E+00  0.00000E+00
  0.26226E+01  0.23038E+01  0.00000E+00
  0.29126E+01  0.41798E+01  0.00000E+00
  0.35815E+01  0.46466E+01  0.00000E+00
  0.42271E+01  0.42540E+01  0.00000E+00
  0.58608E+01  0.43156E+01  0.00000E+00
  0.82524E+01  0.39757E+01  0.00000E+00
  0.93667E+01  0.30948E+01  0.00000E+00
  0.91665E+01  0.26525E+01  0.00000E+00
  0.92476E+01  0.25734E+01  0.00000E+00
  0.98999E+01  0.25988E+01  0.00000E+00
  0.10608E+02  0.26320E+01  0.00000E+00
  0.11177E+02  0.24103E+01  0.00000E+00
  0.12708E+02  0.22452E+01  0.00000E+00
  0.14026E+02  0.14220E+01  0.00000E+00
  0.14961E+02  0.92590E+00  0.00000E+00
  0.16183E+02  0.90942E-01  0.00000E+00
  0.17104E+02 -0.10067E+01  0.00000E+00
  0.18155E+02 -0.21737E+01  0.00000E+00
  0.18671E+02 -0.38094E+01  0.00000E+00
  0.18629E+02 -0.48348E+01  0.00000E+00
  0.18537E+02 -0.55897E+01  0.00000E+00
  0.18336E+02 -0.59764E+01  0.00000E+00
  0.17265E+02 -0.58016E+01  0.00000E+00
  0.16875E+02 -0.55428E+01  0.00000E+00
  0.16767E+02 -0.55946E+01  0.00000E+00
  0.16540E+02 -0.56288E+01  0.00000E+00
  0.16105E+02 -0.52450E+01  0.00000E+00
  0.15530E+02 -0.47206E+01  0.00000E+00
  0.15018E+02 -0.40370E+01  0.00000E+00
  0.14424E+02 -0.38387E+01  0.00000E+00
  0.13723E+02 -0.34647E+01  0.00000E+00
  0.13290E+02 -0.29276E+01  0.00000E+00
  0.12971E+02 -0.21493E+01  0.00000E+00
  0.12777E+02 -0.98328E+00  0.00000E+00
  0.12948E+02  0.63293E+00  0.00000E+00
  0.13701E+02  0.19786E+01  0.00000E+00
  0.14543E+02  0.32062E+01  0.00000E+00
  0.15775E+02  0.47120E+01  0.00000E+00
  0.17135E+02  0.70450E+01  0.00000E+00
  0.18039E+02  0.10041E+02  0.00000E+00
  0.20033E+02  0.13060E+02  0.00000E+00
  0.21506E+02  0.14009E+02  0.00000E+00
  0.20258E+02  0.13362E+02  0.00000E+00
  0.18246E+02  0.11903E+02  0.00000E+00
  0.15948E+02  0.11463E+02  0.00000E+00
  0.13333E+02  0.12243E+02  0.00000E+00
  0.95278E+01  0.13319E+02  0.00000E+00
  0.10246E+02  0.10750E+02  0.00000E+00
  0.91216E+01  0.76476E+01  0.00000E+00
  0.87739E+01  0.68673E+01  0.00000E+00
  0.72222E+01  0.63341E+01  0.00000E+00
  0.58843E+01  0.58038E+01  0.00000E+00
  0.50230E+01  0.54679E+01  0.00000E+00
  0.35288E+01  0.54523E+01  0.00000E+00
  0.24351E+01  0.46544E+01  0.00000E+00
  0.23989E+01  0.37345E+01  0.00000E+00
  0.21987E+01  0.31495E+01  0.00000E+00
  0.23472E+01  0.22198E+01  0.00000E+00
  0.23071E+01  0.14191E+01  0.00000E+00
  0.18267E+01  0.91907E+00  0.00000E+00
  0.14194E+01  0.44836E+00  0.00000E+00
  0.12300E+01 -0.53796E+00  0.00000E+00
  0.10874E+01 -0.14218E+01  0.00000E+00
  0.92041E+00 -0.17587E+01  0.00000E+00
  0.54932E+00 -0.20389E+01  0.00000E+00
 -0.16650E+00 -0.22587E+01  0.00000E+00
 -0.10767E+01 -0.18993E+01  0.00000E+00
 -0.15503E+01 -0.17753E+01  0.00000E+00
 -0.12485E+01 -0.20555E+01  0.00000E+00
 -0.29443E+00 -0.27802E+01  0.00000E+00
  0.66456E+00 -0.37596E+01  0.00000E+00
  0.12759E+01 -0.45057E+01  0.00000E+00
  0.15112E+01 -0.46014E+01  0.00000E+00
  0.12622E+01 -0.42968E+01  0.00000E+00
 -0.21968E-01 -0.37538E+01  0.00000E+00
 -0.12056E+01 -0.33553E+01  0.00000E+00
 -0.21743E+01 -0.30917E+01  0.00000E+00
 -0.29839E+01 -0.37958E+01  0.00000E+00
 -0.30659E+01 -0.54755E+01  0.00000E+00
 -0.26216E+01 -0.69003E+01  0.00000E+00
 -0.21987E+01 -0.79530E+01  0.00000E+00
 -0.21294E+01 -0.89784E+01  0.00000E+00
 -0.23560E+01 -0.10124E+02  0.00000E+00
 -0.24683E+01 -0.10628E+02  0.00000E+00
 -0.18433E+01 -0.97899E+01  0.00000E+00
 -0.12544E+01 -0.84501E+01  0.00000E+00
 -0.15884E+01 -0.80477E+01  0.00000E+00
 -0.35054E+01 -0.58661E+01  0.00000E+00
 -0.35825E+01 -0.39032E+01  0.00000E+00
 -0.22241E+01 -0.33739E+01  0.00000E+00
  0.92290E-01 -0.87292E+00  0.00000E+00
  0.21909E+01  0.19406E+01  0.00000E+00
  0.32251E+01  0.29366E+01  0.00000E+00
  0.39810E+01  0.30333E+01  0.00000E+00
  0.49458E+01  0.27911E+01  0.00000E+00
  0.60591E+01  0.27247E+01  0.00000E+00
  0.72495E+01  0.26661E+01  0.00000E+00
  0.85571E+01  0.26007E+01  0.00000E+00
  0.98853E+01  0.26056E+01  0.00000E+00
  0.11236E+02  0.25255E+01  0.00000E+00
  0.12356E+02  0.22462E+01  0.00000E+00
  0.13620E+02  0.19913E+01  0.00000E+00
  0.14820E+02  0.11915E+01  0.00000E+00
  0.15833E+02  0.51880E-01  0.00000E+00
  0.16913E+02 -0.11864E+01  0.00000E+00
  0.17774E+02 -0.17870E+01  0.00000E+00
  0.18560E+02 -0.27557E+01  0.00000E+00
  0.18972E+02 -0.37723E+01  0.00000E+00
  0.18733E+02 -0.46844E+01  0.00000E+00
  0.17844E+02 -0.50887E+01  0.00000E+00
  0.16653E+02 -0.50292E+01  0.00000E+00
  0.16301E+02 -0.49276E+01  0.00000E+00
  0.15763E+02 -0.45624E+01  0.00000E+00
  0.15203E+02 -0.39891E+01  0.00000E+00
  0.14573E+02 -0.33534E+01  0.00000E+00
  0.14292E+02 -0.30136E+01  0.00000E+00
  0.13656E+02 -0.24891E+01  0.00000E+00
  0.12960E+02 -0.20536E+01  0.00000E+00
  0.12536E+02 -0.18778E+01  0.00000E+00
  0.12145E+02 -0.16835E+01  0.00000E+00
  0.11437E+02 -0.12587E+01  0.00000E+00
  0.11330E+02 -0.11464E+01  0.00000E+00
  0.11489E+02 -0.93250E+00  0.00000E+00
  0.11249E+02 -0.31140E+00  0.00000E+00
  0.10638E+02  0.89563E+00  0.00000E+00
  0.10287E+02  0.22931E+01  0.00000E+00
  0.10437E+02  0.31583E+01  0.00000E+00
  0.10827E+02  0.34572E+01  0.00000E+00
  0.11287E+02  0.38341E+01  0.00000E+00
  0.13870E+02  0.64259E+01  0.00000E+00
  0.19379E+02  0.10954E+02  0.00000E+00
  0.21451E+02  0.12573E+02  0.00000E+00
  0.22517E+02  0.13306E+02  0.00000E+00
  0.20669E+02  0.12740E+02  0.00000E+00
  0.17866E+02  0.12289E+02  0.00000E+00
  0.15886E+02  0.12354E+02  0.00000E+00
  0.12034E+02  0.15685E+02  0.00000E+00
  0.99819E+01  0.13455E+02  0.00000E+00
  0.93423E+01  0.99611E+01  0.00000E+00
  0.79780E+01  0.80148E+01  0.00000E+00
  0.66597E+01  0.78741E+01  0.00000E+00
  0.58735E+01  0.70646E+01  0.00000E+00
  0.52065E+01  0.65831E+01  0.00000E+00
  0.41450E+01  0.59396E+01  0.00000E+00
  0.29673E+01  0.54943E+01  0.00000E+00
  0.24556E+01  0.44523E+01  0.00000E+00
  0.20640E+01  0.37960E+01  0.00000E+00
  0.19282E+01  0.28790E+01  0.00000E+00
  0.18950E+01  0.19943E+01  0.00000E+00
  0.14780E+01  0.13322E+01  0.00000E+00
  0.87452E+00  0.82434E+00  0.00000E+00
  0.23487E+00  0.66528E-01  0.00000E+00
 -0.43452E-01 -0.70496E+00  0.00000E+00
 -0.25341E+00 -0.11210E+01  0.00000E+00
 -0.48974E+00 -0.15477E+01  0.00000E+00
 -0.91943E+00 -0.15946E+01  0.00000E+00
 -0.14233E+01 -0.11659E+01  0.00000E+00
 -0.15698E+01 -0.14637E+01  0.00000E+00
 -0.11577E+01 -0.24432E+01  0.00000E+00
 -0.67919E+00 -0.35643E+01  0.00000E+00
 -0.38427E+00 -0.44110E+01  0.00000E+00
 -0.22607E+00 -0.44510E+01  0.00000E+00
  0.31743E-01 -0.38280E+01  0.00000E+00
  0.73290E-02 -0.31610E+01  0.00000E+00
 -0.67822E+00 -0.27499E+01  0.00000E+00
 -0.12026E+01 -0.24755E+01  0.00000E+00
 -0.18862E+01 -0.19501E+01  0.00000E+00
 -0.25444E+01 -0.26190E+01  0.00000E+00
 -0.25395E+01 -0.46923E+01  0.00000E+00
 -0.21499E+01 -0.67733E+01  0.00000E+00
 -0.18638E+01 -0.79999E+01  0.00000E+00
 -0.20991E+01 -0.88671E+01  0.00000E+00
 -0.25581E+01 -0.95048E+01  0.00000E+00
 -0.28892E+01 -0.10171E+02  0.00000E+00
 -0.27310E+01 -0.10028E+02  0.00000E+00
 -0.17700E+01 -0.83837E+01  0.00000E+00
 -0.10981E+01 -0.69764E+01  0.00000E+00
 -0.15356E+01 -0.63710E+01  0.00000E+00
 -0.26587E+01 -0.36288E+01  0.00000E+00
 -0.29136E+01 -0.13309E+01  0.00000E+00
 -0.27075E+01 -0.16600E+01  0.00000E+00
 -0.18022E+01 -0.52429E+00  0.00000E+00
 -0.12939E+00  0.22180E+00  0.00000E+00
  0.15640E+01  0.79797E+00  0.00000E+00
  0.32856E+01  0.76282E+00  0.00000E+00
  0.50610E+01  0.78040E+00  0.00000E+00
  0.64331E+01  0.66516E+00  0.00000E+00
  0.76685E+01  0.45129E+00  0.00000E+00
  0.91089E+01  0.17395E+00  0.00000E+00
  0.10419E+02 -0.12390E+00  0.00000E+00
  0.11838E+02 -0.50085E+00  0.00000E+00
  0.13080E+02 -0.11718E+01  0.00000E+00
  0.13719E+02 -0.15497E+01  0.00000E+00
  0.14410E+02 -0.18466E+01  0.00000E+00
  0.14995E+02 -0.23856E+01  0.00000E+00
  0.15358E+02 -0.29803E+01  0.00000E+00
  0.15639E+02 -0.34344E+01  0.00000E+00
  0.15815E+02 -0.39032E+01  0.00000E+00
  0.15183E+02 -0.40302E+01  0.00000E+00
  0.14542E+02 -0.40624E+01  0.00000E+00
  0.13726E+02 -0.35839E+01  0.00000E+00
  0.13435E+02 -0.29432E+01  0.00000E+00
  0.13361E+02 -0.22636E+01  0.00000E+00
  0.13019E+02 -0.16552E+01  0.00000E+00
  0.12679E+02 -0.92273E+00  0.00000E+00
  0.12666E+02 -0.37292E+00  0.00000E+00
  0.12501E+02 -0.22351E+00  0.00000E+00
  0.11887E+02 -0.45398E+00  0.00000E+00
  0.11201E+02 -0.99207E+00  0.00000E+00
  0.10755E+02 -0.13837E+01  0.00000E+00
  0.10426E+02 -0.10819E+01  0.00000E+00
  0.10492E+02 -0.27136E+00  0.00000E+00
  0.11070E+02  0.15735E+00  0.00000E+00
  0.11704E+02  0.37024E+00  0.00000E+00
  0.11889E+02  0.71692E+00  0.00000E+00
  0.11528E+02  0.13517E+01  0.00000E+00
  0.10659E+02  0.18546E+01  0.00000E+00
  0.10095E+02  0.22325E+01  0.00000E+00
  0.10119E+02  0.26007E+01  0.00000E+00
  0.10055E+02  0.32384E+01  0.00000E+00
  0.11767E+02  0.46974E+01  0.00000E+00
  0.15258E+02  0.84288E+01  0.00000E+00
  0.22250E+02  0.11619E+02  0.00000E+00
  0.22118E+02  0.12955E+02  0.00000E+00
  0.20142E+02  0.12913E+02  0.00000E+00
  0.18450E+02  0.13859E+02  0.00000E+00
  0.15544E+02  0.15266E+02  0.00000E+00
  0.11942E+02  0.16188E+02  0.00000E+00
  0.90093E+01  0.12720E+02  0.00000E+00
  0.78042E+01  0.10756E+02  0.00000E+00
  0.69282E+01  0.10549E+02  0.00000E+00
  0.62778E+01  0.78820E+01  0.00000E+00
  0.56050E+01  0.74249E+01  0.00000E+00
  0.49712E+01  0.66974E+01  0.00000E+00
  0.41157E+01  0.61407E+01  0.00000E+00
  0.32837E+01  0.52511E+01  0.00000E+00
  0.27163E+01  0.44757E+01  0.00000E+00
  0.20933E+01  0.36603E+01  0.00000E+00
  0.17505E+01  0.29689E+01  0.00000E+00
  0.11636E+01  0.23986E+01  0.00000E+00
  0.24561E+00  0.19083E+01  0.00000E+00
 -0.27001E+00  0.75989E+00  0.00000E+00
 -0.68115E+00 -0.21765E+00  0.00000E+00
 -0.10405E+01 -0.75671E+00  0.00000E+00
 -0.12310E+01 -0.11591E+01  0.00000E+00
 -0.12749E+01 -0.10331E+01  0.00000E+00
 -0.14634E+01 -0.93152E+00  0.00000E+00
 -0.16460E+01 -0.16171E+01  0.00000E+00
 -0.18003E+01 -0.27059E+01  0.00000E+00
 -0.22397E+01 -0.37509E+01  0.00000E+00
 -0.24790E+01 -0.43153E+01  0.00000E+00
 -0.22993E+01 -0.41093E+01  0.00000E+00
 -0.17602E+01 -0.33065E+01  0.00000E+00
 -0.12485E+01 -0.27655E+01  0.00000E+00
 -0.95556E+00 -0.23778E+01  0.00000E+00
 -0.94677E+00 -0.19344E+01  0.00000E+00
 -0.11655E+01 -0.14432E+01  0.00000E+00
 -0.14214E+01 -0.19511E+01  0.00000E+00
 -0.14907E+01 -0.38036E+01  0.00000E+00
 -0.13345E+01 -0.60702E+01  0.00000E+00
 -0.12856E+01 -0.74178E+01  0.00000E+00
 -0.20044E+01 -0.81278E+01  0.00000E+00
 -0.33364E+01 -0.89237E+01  0.00000E+00
 -0.35151E+01 -0.97469E+01  0.00000E+00
 -0.32329E+01 -0.96434E+01  0.00000E+00
 -0.28325E+01 -0.88075E+01  0.00000E+00
 -0.15649E+01 -0.69149E+01  0.00000E+00
 -0.83447E+00 -0.55653E+01  0.00000E+00
 -0.12134E+01 -0.45712E+01  0.00000E+00
 -0.19233E+01 -0.16669E+01  0.00000E+00
 -0.19966E+01  0.52747E+00  0.00000E+00
 -0.12729E+01  0.69458E-01  0.00000E+00
 -0.83056E+00 -0.95496E+00  0.00000E+00
  0.10791E+00 -0.76941E+00  0.00000E+00
  0.14194E+01 -0.25867E+00  0.00000E+00
  0.29966E+01 -0.29871E+00  0.00000E+00
  0.47271E+01 -0.51257E+00  0.00000E+00
  0.61470E+01 -0.81433E+00  0.00000E+00
  0.77153E+01 -0.96765E+00  0.00000E+00
  0.90972E+01 -0.10555E+01  0.00000E+00
  0.10399E+02 -0.10487E+01  0.00000E+00
  0.11306E+02 -0.10975E+01  0.00000E+00
  0.11496E+02 -0.11552E+01  0.00000E+00
  0.11239E+02 -0.14325E+01  0.00000E+00
  0.10910E+02 -0.17792E+01  0.00000E+00
  0.10418E+02 -0.24989E+01  0.00000E+00
  0.10002E+02 -0.28807E+01  0.00000E+00
  0.95981E+01 -0.29628E+01  0.00000E+00
  0.96362E+01 -0.31737E+01  0.00000E+00
  0.97398E+01 -0.30126E+01  0.00000E+00
  0.10060E+02 -0.24130E+01  0.00000E+00
  0.10544E+02 -0.14559E+01  0.00000E+00
  0.11102E+02 -0.45496E+00  0.00000E+00
  0.11521E+02  0.58801E+00  0.00000E+00
  0.11391E+02  0.11857E+01  0.00000E+00
  0.11333E+02  0.11945E+01  0.00000E+00
  0.11429E+02  0.64075E+00  0.00000E+00
  0.11274E+02 -0.32996E+00  0.00000E+00
  0.11048E+02 -0.14823E+01  0.00000E+00
  0.10814E+02 -0.23622E+01  0.00000E+00
  0.10593E+02 -0.28895E+01  0.00000E+00
  0.10388E+02 -0.23505E+01  0.00000E+00
  0.11104E+02 -0.87390E+00  0.00000E+00
  0.12311E+02  0.36633E+00  0.00000E+00
  0.13235E+02  0.81262E+00  0.00000E+00
  0.13289E+02  0.74719E+00  0.00000E+00
  0.12565E+02  0.62219E+00  0.00000E+00
  0.11870E+02  0.10616E+01  0.00000E+00
  0.11630E+02  0.18136E+01  0.00000E+00
  0.12022E+02  0.26681E+01  0.00000E+00
  0.11375E+02  0.33175E+01  0.00000E+00
  0.12090E+02  0.56642E+01  0.00000E+00
  0.16689E+02  0.81232E+01  0.00000E+00
  0.21412E+02  0.11649E+02  0.00000E+00
  0.18838E+02  0.10928E+02  0.00000E+00
  0.15677E+02  0.12531E+02  0.00000E+00
  0.16574E+02  0.14085E+02  0.00000E+00
  0.16478E+02  0.13193E+02  0.00000E+00
  0.95425E+01  0.14666E+02  0.00000E+00
  0.79478E+01  0.12360E+02  0.00000E+00
  0.71157E+01  0.12160E+02  0.00000E+00
  0.76421E+01  0.85392E+01  0.00000E+00
  0.65689E+01  0.83654E+01  0.00000E+00
  0.60767E+01  0.76105E+01  0.00000E+00
  0.54175E+01  0.69728E+01  0.00000E+00
  0.47065E+01  0.65402E+01  0.00000E+00
  0.39946E+01  0.56368E+01  0.00000E+00
  0.31890E+01  0.47335E+01  0.00000E+00
  0.26030E+01  0.41788E+01  0.00000E+00
  0.18589E+01  0.36056E+01  0.00000E+00
  0.10396E+01  0.28448E+01  0.00000E+00
  0.29639E+00  0.16232E+01  0.00000E+00
 -0.45654E+00  0.42883E+00  0.00000E+00
 -0.91259E+00 -0.52917E+00  0.00000E+00
 -0.12720E+01 -0.99109E+00  0.00000E+00
 -0.12056E+01 -0.69519E+00  0.00000E+00
 -0.12612E+01 -0.55457E+00  0.00000E+00
 -0.14927E+01 -0.11962E+01  0.00000E+00
 -0.19741E+01 -0.22479E+01  0.00000E+00
 -0.27944E+01 -0.33700E+01  0.00000E+00
 -0.34370E+01 -0.42020E+01  0.00000E+00
 -0.34800E+01 -0.44276E+01  0.00000E+00
 -0.29233E+01 -0.38065E+01  0.00000E+00
 -0.19556E+01 -0.30438E+01  0.00000E+00
 -0.10659E+01 -0.24462E+01  0.00000E+00
 -0.64306E+00 -0.18241E+01  0.00000E+00
 -0.45068E+00 -0.12118E+01  0.00000E+00
 -0.63960E-01 -0.12303E+01  0.00000E+00
 -0.20991E-01 -0.24091E+01  0.00000E+00
 -0.38569E-01 -0.41884E+01  0.00000E+00
 -0.71826E+00 -0.53436E+01  0.00000E+00
 -0.28794E+01 -0.67870E+01  0.00000E+00
 -0.49956E+01 -0.82352E+01  0.00000E+00
 -0.53091E+01 -0.94501E+01  0.00000E+00
 -0.46567E+01 -0.97958E+01  0.00000E+00
 -0.40825E+01 -0.93221E+01  0.00000E+00
 -0.31177E+01 -0.76473E+01  0.00000E+00
 -0.21704E+01 -0.58905E+01  0.00000E+00
 -0.14966E+01 -0.43397E+01  0.00000E+00
 -0.16352E+01 -0.31981E+01  0.00000E+00
 -0.18237E+01 -0.13593E+01  0.00000E+00
 -0.10981E+01 -0.17175E+00  0.00000E+00
 -0.13882E+01  0.10071E+00  0.00000E+00
 -0.25122E+01 -0.49402E+00  0.00000E+00
 -0.10640E+01 -0.39636E+00  0.00000E+00
  0.13428E+00 -0.82117E+00  0.00000E+00
  0.64795E+00 -0.12665E+01  0.00000E+00
  0.18364E+01 -0.13280E+01  0.00000E+00
  0.38052E+01 -0.19374E+01  0.00000E+00
  0.54565E+01 -0.26053E+01  0.00000E+00
  0.71782E+01 -0.26014E+01  0.00000E+00
  0.85396E+01 -0.18729E+01  0.00000E+00
  0.91001E+01 -0.10233E+01  0.00000E+00
  0.84956E+01 -0.54480E+00  0.00000E+00
  0.71421E+01 -0.78113E+00  0.00000E+00
  0.64224E+01 -0.12782E+01  0.00000E+00
  0.62456E+01 -0.17606E+01  0.00000E+00
  0.63394E+01 -0.20565E+01  0.00000E+00
  0.68980E+01 -0.22548E+01  0.00000E+00
  0.76314E+01 -0.24130E+01  0.00000E+00
  0.83023E+01 -0.21649E+01  0.00000E+00
  0.89985E+01 -0.13524E+01  0.00000E+00
  0.98999E+01 -0.28992E+00  0.00000E+00
  0.10495E+02  0.65247E+00  0.00000E+00
  0.10737E+02  0.10929E+01  0.00000E+00
  0.10531E+02  0.10402E+01  0.00000E+00
  0.10616E+02  0.20911E+00  0.00000E+00
  0.10983E+02 -0.11317E+01  0.00000E+00
  0.11196E+02 -0.23329E+01  0.00000E+00
  0.11340E+02 -0.35106E+01  0.00000E+00
  0.11370E+02 -0.43231E+01  0.00000E+00
  0.11247E+02 -0.37557E+01  0.00000E+00
  0.11254E+02 -0.18485E+01  0.00000E+00
  0.11595E+02 -0.24304E+00  0.00000E+00
  0.12519E+02  0.45129E+00  0.00000E+00
  0.13361E+02  0.70715E+00  0.00000E+00
  0.13579E+02  0.10079E+01  0.00000E+00
  0.13826E+02  0.10724E+01  0.00000E+00
  0.13889E+02  0.15333E+01  0.00000E+00
  0.14059E+02  0.19015E+01  0.00000E+00
  0.14778E+02  0.35665E+01  0.00000E+00
  0.14063E+02  0.53068E+01  0.00000E+00
  0.17102E+02  0.72941E+01  0.00000E+00